<VTKFile type="UnstructuredGrid" version="0.1" byte_order="BigEndian">
  <UnstructuredGrid>
    <Piece NumberOfPoints="20" NumberOfCells="37">
      <PointData Scalars="scalars">
        <DataArray type="Float32" NumberOfComponents="3" Name="Re(J)Eddy" Format="ascii">
        0.000000  0.000000  0.000000
        0.000000  0.000000  0.000000
        0.000000  0.000000  0.000000
        0.000000  0.000000  0.000000
        0.000000  0.000000  0.000000
        0.000000  0.000000  0.000000
        0.000000  0.000000  0.000000
        0.000000  0.000000  0.000000
        0.000000  0.000000  0.000000
        0.000000  0.000000  0.000000
        0.000000  0.000000  0.000000
        0.000000  0.000000  0.000000
        0.000000  0.000000  0.000000
        0.000000  0.000000  0.000000
        0.000000  0.000000  0.000000
        0.000000  0.000000  0.000000
        0.000000  0.000000  0.000000
        0.000000  0.000000  0.000000
        0.000000  0.000000  0.000000
        0.000000  0.000000  0.000000
        </DataArray>
        <DataArray type="Float32" NumberOfComponents="3" Name="Im(J)Eddy" Format="ascii">
        0.000000  0.000000  0.000000
        0.000000  0.000000  0.000000
        0.000000  0.000000  0.000000
        0.000000  0.000000  0.000000
        0.000000  0.000000  0.000000
        0.000000  0.000000  0.000000
        0.000000  0.000000  0.000000
        0.000000  0.000000  0.000000
        0.000000  0.000000  0.000000
        0.000000  0.000000  0.000000
        0.000000  0.000000  0.000000
        0.000000  0.000000  0.000000
        0.000000  0.000000  0.000000
        0.000000  0.000000  0.000000
        0.000000  0.000000  0.000000
        0.000000  0.000000  0.000000
        0.000000  0.000000  0.000000
        0.000000  0.000000  0.000000
        0.000000  0.000000  0.000000
        0.000000  0.000000  0.000000
        </DataArray>
        <DataArray type="Float32" NumberOfComponents="3" Name="Re(H)Magnetic" Format="ascii">
        0.000000  0.000000  0.000000
        0.000000  0.000000  0.000000
        0.000000  0.000000  0.000000
        0.000000  0.000000  0.000000
        0.000000  0.000000  0.000000
        0.000000  0.000000  0.000000
        0.000000  0.000000  0.000000
        0.000000  0.000000  0.000000
        0.000000  0.000000  0.000000
        0.000000  0.000000  0.000000
        0.000000  0.000000  0.000000
        0.000000  0.000000  0.000000
        0.000000  0.000000  0.000000
        0.000000  0.000000  0.000000
        0.000000  0.000000  0.000000
        0.000000  0.000000  0.000000
        0.000000  0.000000  0.000000
        0.000000  0.000000  0.000000
        0.000000  0.000000  0.000000
        0.000000  0.000000  0.000000
        </DataArray>
        <DataArray type="Float32" NumberOfComponents="3" Name="Im(H)Magnetic" Format="ascii">
        0.000000  0.000000  0.000000
        0.000000  0.000000  0.000000
        0.000000  0.000000  0.000000
        0.000000  0.000000  0.000000
        0.000000  0.000000  0.000000
        0.000000  0.000000  0.000000
        0.000000  0.000000  0.000000
        0.000000  0.000000  0.000000
        0.000000  0.000000  0.000000
        0.000000  0.000000  0.000000
        0.000000  0.000000  0.000000
        0.000000  0.000000  0.000000
        0.000000  0.000000  0.000000
        0.000000  0.000000  0.000000
        0.000000  0.000000  0.000000
        0.000000  0.000000  0.000000
        0.000000  0.000000  0.000000
        0.000000  0.000000  0.000000
        0.000000  0.000000  0.000000
        0.000000  0.000000  0.000000
        </DataArray>
      </PointData>
      <CellData Scalars="scalars">
        <DataArray type="Int32" Name="Suddomain" Format="ascii">
       1 
       1 
       1 
       1 
       1 
       1 
       1 
       1 
       1 
       1 
       1 
       1 
       1 
       1 
       1 
       1 
       1 
       1 
       1 
       1 
       1 
       1 
       1 
       1 
       1 
       1 
       1 
       1 
       1 
       1 
       1 
       1 
       1 
       1 
       1 
       1 
       1 
        </DataArray>
      </CellData>
      <Points>
        <DataArray type="Float32" NumberOfComponents="3" Format="ascii">
          -1.000000  0.000000  0.000000
          1.000000  0.000000  0.000000
          0.000000  1.732051  0.000000
          0.000000  0.577350  1.632993
          -0.333333  0.000000  0.000000
          0.333333  0.000000  0.000000
          -0.666667  0.577350  0.000000
          -0.000000  0.577350  0.000000
          0.666667  0.577350  0.000000
          -0.333333  1.154701  0.000000
          0.333333  1.154701  0.000000
          -0.666667  0.192450  0.544331
          -0.000000  0.192450  0.544331
          0.666667  0.192450  0.544331
          -0.333333  0.769800  0.544331
          0.333333  0.769800  0.544331
          -0.000000  1.347151  0.544331
          -0.333333  0.384900  1.088662
          0.333333  0.384900  1.088662
          -0.000000  0.962250  1.088662
        </DataArray>
      </Points>
      <Cells>
        <DataArray type="Int32" Name="connectivity" Format="ascii">
      15      3      18      13
      9      14      6      7
      12      11      14      4
      12      5      4      7
      10      15      16      7
      10      8      15      7
      10      16      9      7
      12      4      14      7
      16      15      14      7
      17      11      14      12
      15      12      14      7
      9      16      14      7
      2      3      15      1
      2      15      16      10
      2      16      9      10
      6      14      4      7
      15      18      12      13
      15      8      5      7
      15      1      13      8
      15      3      13      1
      19      12      14      15
      16      19      14      15
      16      3      19      15
      2      3      16      15
      19      17      14      12
      2      1      15      8
      2      8      15      10
      15      5      12      7
      19      3      18      15
      1      5      13      8
      15      8      13      5
      19      3      17      18
      19      18      12      15
      15      13      12      5
      6      11      0      4
      6      14      11      4
      19      17      12      18
        </DataArray>
        <DataArray type="Int32" Name="offsets" Format="ascii">
        4         8         12         16         20         24         28         32         36         40         44         48         52         56         60         64         68         72         76         80         84         88         92         96         100         104         108         112         116         120         124         128         132         136         140         144         148 
        </DataArray>
        <DataArray type="Int32" Name="types" Format="ascii">
      10       10       10       10       10       10       10       10       10       10       10       10       10       10       10       10       10       10       10       10       10       10       10       10       10       10       10       10       10       10       10       10       10       10       10       10       10 
        </DataArray>
      </Cells>
    </Piece>
  </UnstructuredGrid>
</VTKFile>
